{
  "atomicNumber": 10,
  "symbol": "Ne",
  "name": "Neon",
  "category": "noble-gas",
  "period": 2,
  "block": "p",
  "atomicMass": 20.18,
  "standardState": "gas",
  "density": {
    "value": 0.9002,
    "conditions": "0°C, 1 atm"
  },
  "meltingPoint": {
    "value": 24.56,
    "unit": "K"
  },
  "boilingPoint": {
    "value": 27.07,
    "unit": "K"
  },
  "electronegativity": null,
  "electronConfiguration": "1s2 2s2 2p6",
  "discoveredBy": "William Ramsay and Morris Travers",
  "discoveryYear": 1898,
  "summary": "Neon is a noble gas that produces a distinctive orange-red glow when used in electrical discharge tubes, commonly known as neon signs.",
  "oxidationStates": [
    0
  ],
  "uses": [
    "neon signs",
    "high-voltage indicators",
    "laser tubes",
    "cryogenic refrigerant"
  ],
  "sources": [
    "air separation",
    "fractional distillation of liquid air"
  ],
  "groupNumber": 18
}