{
  "atomicNumber": 24,
  "symbol": "Cr",
  "name": "Chromium",
  "category": "transition-metal",
  "period": 4,
  "block": "d",
  "atomicMass": 51.996,
  "standardState": "solid",
  "density": {
    "value": 7.15,
    "conditions": "20°C, 1 atm"
  },
  "meltingPoint": {
    "value": 2180,
    "unit": "K"
  },
  "boilingPoint": {
    "value": 2944,
    "unit": "K"
  },
  "electronegativity": 1.66,
  "electronConfiguration": "1s2 2s2 2p6 3s2 3p6 4s1 3d5",
  "discoveredBy": "Louis Nicolas Vauquelin",
  "discoveryYear": 1797,
  "summary": "Chromium is a lustrous metal, famed for its high polish and hardness, used in stainless steel and chrome plating.",
  "oxidationStates": [
    6,
    3,
    2
  ],
  "uses": [
    "stainless steel",
    "chrome plating",
    "pigments"
  ],
  "sources": [
    "chromite"
  ],
  "groupNumber": 6
}