{
  "atomicNumber": 30,
  "symbol": "Zn",
  "name": "Zinc",
  "category": "post-transition metal",
  "period": 4,
  "block": "d",
  "atomicMass": 65.38,
  "standardState": "solid",
  "density": {
    "value": 7.134,
    "conditions": "20°C, 1 atm"
  },
  "meltingPoint": {
    "value": 692.68,
    "unit": "K"
  },
  "boilingPoint": {
    "value": 1180,
    "unit": "K"
  },
  "electronegativity": 1.65,
  "electronConfiguration": "1s2 2s2 2p6 3s2 3p6 4s2 3d10",
  "discoveredBy": "Andreas Marggraf",
  "discoveryYear": 1746,
  "summary": "Zinc is a bluish-white metal used for galvanization, batteries, and as an essential trace element for life.",
  "oxidationStates": [
    2
  ],
  "uses": [
    "galvanization",
    "batteries",
    "alloys"
  ],
  "sources": [
    "sphalerite",
    "calamine"
  ],
  "groupNumber": 12
}