{
  "atomicNumber": 66,
  "symbol": "Dy",
  "name": "Dysprosium",
  "category": "lanthanide",
  "period": 6,
  "block": "f",
  "atomicMass": 162.5,
  "standardState": "solid",
  "density": {
    "value": 8.54,
    "conditions": "20°C, 1 atm"
  },
  "meltingPoint": {
    "value": 1680,
    "unit": "K"
  },
  "boilingPoint": {
    "value": 2840,
    "unit": "K"
  },
  "electronegativity": 1.22,
  "electronConfiguration": "1s2 2s2 2p6 3s2 3p6 4s2 3d10 4p6 5s2 4d10 5p6 6s2 4f10",
  "discoveredBy": "Paul Émile Lecoq de Boisbaudran",
  "discoveryYear": 1886,
  "summary": "Dysprosium is a soft, silvery metal used in magnets, nuclear reactors, and lasers.",
  "oxidationStates": [
    3
  ],
  "uses": [
    "magnets",
    "nuclear reactor control rods",
    "lasers"
  ],
  "sources": [
    "monazite",
    "xenotime"
  ],
  "groupNumber": null
}