{
  "atomicNumber": 68,
  "symbol": "Er",
  "name": "Erbium",
  "category": "lanthanide",
  "period": 6,
  "block": "f",
  "atomicMass": 167.26,
  "standardState": "solid",
  "density": {
    "value": 9.07,
    "conditions": "20°C, 1 atm"
  },
  "meltingPoint": {
    "value": 1802,
    "unit": "K"
  },
  "boilingPoint": {
    "value": 3141,
    "unit": "K"
  },
  "electronegativity": 1.24,
  "electronConfiguration": "1s2 2s2 2p6 3s2 3p6 4s2 3d10 4p6 5s2 4d10 5p6 6s2 4f12",
  "discoveredBy": "Carl Gustaf Mosander",
  "discoveryYear": 1843,
  "summary": "Erbium is a silvery-white, malleable rare-earth metal, used in fiber optic communications, lasers, and nuclear technology.",
  "oxidationStates": [
    3
  ],
  "uses": [
    "fiber optics",
    "lasers",
    "nuclear technology"
  ],
  "sources": [
    "monazite",
    "xenotime"
  ],
  "groupNumber": null
}