{
  "atomicNumber": 95,
  "symbol": "Am",
  "name": "Americium",
  "category": "actinide",
  "period": 7,
  "block": "f",
  "atomicMass": 243,
  "standardState": "solid",
  "density": {
    "value": 13.67,
    "conditions": "20°C, 1 atm"
  },
  "meltingPoint": {
    "value": 1449,
    "unit": "K"
  },
  "boilingPoint": {
    "value": 2284,
    "unit": "K"
  },
  "electronegativity": 1.3,
  "electronConfiguration": "1s2 2s2 2p6 3s2 3p6 4s2 3d10 4p6 5s2 4d10 5p6 6s2 4f14 5d10 6p6 7s2 5f7",
  "discoveredBy": "Glenn T. Seaborg, Ralph A. James, Leon O. Morgan",
  "discoveryYear": 1944,
  "summary": "Americium is a radioactive, silvery metal, best known for use in smoke detectors.",
  "oxidationStates": [
    3,
    4,
    5,
    6
  ],
  "uses": [
    "smoke detectors",
    "neutron sources"
  ],
  "sources": [
    "nuclear reactors"
  ],
  "groupNumber": null
}