{
  "atomicNumber": 96,
  "symbol": "Cm",
  "name": "Curium",
  "category": "actinide",
  "period": 7,
  "block": "f",
  "atomicMass": 247,
  "standardState": "solid",
  "density": {
    "value": 13.52,
    "conditions": "20°C, 1 atm"
  },
  "meltingPoint": {
    "value": 1613,
    "unit": "K"
  },
  "boilingPoint": {
    "value": 3383,
    "unit": "K"
  },
  "electronegativity": 1.3,
  "electronConfiguration": "1s2 2s2 2p6 3s2 3p6 4s2 3d10 4p6 5s2 4d10 5p6 6s2 4f14 5d10 6p6 7s2 5f7 6d1",
  "discoveredBy": "Glenn T. Seaborg, Ralph A. James, Albert Ghiorso",
  "discoveryYear": 1944,
  "summary": "Curium is a radioactive, silvery metal, mainly used in scientific research and as a power source for space probes.",
  "oxidationStates": [
    3
  ],
  "uses": [
    "scientific research",
    "radioisotope power sources"
  ],
  "sources": [
    "nuclear reactors"
  ],
  "groupNumber": null
}