{
  "atomicNumber": 97,
  "symbol": "Bk",
  "name": "Berkelium",
  "category": "actinide",
  "period": 7,
  "block": "f",
  "atomicMass": 247,
  "standardState": "solid",
  "density": {
    "value": 14.78,
    "conditions": "20°C, 1 atm"
  },
  "meltingPoint": {
    "value": 1323,
    "unit": "K"
  },
  "boilingPoint": null,
  "electronegativity": 1.3,
  "electronConfiguration": "1s2 2s2 2p6 3s2 3p6 4s2 3d10 4p6 5s2 4d10 5p6 6s2 4f14 5d10 6p6 7s2 5f9",
  "discoveredBy": "Glenn T. Seaborg, Albert Ghiorso, Stanley G. Thompson",
  "discoveryYear": 1949,
  "summary": "Berkelium is a radioactive, synthetic metal, produced only in specialized laboratories for scientific research.",
  "oxidationStates": [
    3,
    4
  ],
  "uses": [
    "scientific research"
  ],
  "sources": [
    "synthetic"
  ],
  "groupNumber": null
}