{
  "atomicNumber": 100,
  "symbol": "Fm",
  "name": "Fermium",
  "category": "actinide",
  "period": 7,
  "block": "f",
  "atomicMass": 257,
  "standardState": "solid",
  "density": null,
  "meltingPoint": {
    "value": 1800,
    "unit": "K"
  },
  "boilingPoint": null,
  "electronegativity": 1.3,
  "electronConfiguration": "1s2 2s2 2p6 3s2 3p6 4s2 3d10 4p6 5s2 4d10 5p6 6s2 4f14 5d10 6p6 7s2 5f12",
  "discoveredBy": "Albert Ghiorso, et al.",
  "discoveryYear": 1952,
  "summary": "Fermium is a synthetic, highly radioactive metal, discovered in the fallout of the first hydrogen bomb test.",
  "oxidationStates": [
    3
  ],
  "uses": [
    "scientific research"
  ],
  "sources": [
    "synthetic"
  ],
  "groupNumber": null
}