{
  "atomicNumber": 101,
  "symbol": "Md",
  "name": "Mendelevium",
  "category": "actinide",
  "period": 7,
  "block": "f",
  "atomicMass": 258,
  "standardState": "solid",
  "density": null,
  "meltingPoint": {
    "value": 1100,
    "unit": "K"
  },
  "boilingPoint": null,
  "electronegativity": 1.3,
  "electronConfiguration": "1s2 2s2 2p6 3s2 3p6 4s2 3d10 4p6 5s2 4d10 5p6 6s2 4f14 5d10 6p6 7s2 5f13",
  "discoveredBy": "Albert Ghiorso, et al.",
  "discoveryYear": 1955,
  "summary": "Mendelevium is a synthetic, radioactive metal, named after Dmitri Mendeleev, and is produced in particle accelerators.",
  "oxidationStates": [
    3
  ],
  "uses": [
    "scientific research"
  ],
  "sources": [
    "synthetic"
  ],
  "groupNumber": null
}