{
  "atomicNumber": 102,
  "symbol": "No",
  "name": "Nobelium",
  "category": "actinide",
  "period": 7,
  "block": "f",
  "atomicMass": 259,
  "standardState": "solid",
  "density": null,
  "meltingPoint": {
    "value": 1100,
    "unit": "K"
  },
  "boilingPoint": null,
  "electronegativity": 1.3,
  "electronConfiguration": "1s2 2s2 2p6 3s2 3p6 4s2 3d10 4p6 5s2 4d10 5p6 6s2 4f14 5d10 6p6 7s2 5f14",
  "discoveredBy": "Georgy Flerov, et al.",
  "discoveryYear": 1957,
  "summary": "Nobelium is a synthetic, radioactive metal, produced in minute amounts for research purposes.",
  "oxidationStates": [
    3,
    2
  ],
  "uses": [
    "scientific research"
  ],
  "sources": [
    "synthetic"
  ],
  "groupNumber": null
}